+ 1 9 1 tcp 40 ------- 1 9.0 12.0 0 0
- 1 9 1 tcp 40 ------- 1 9.0 12.0 0 0
+ 1 13 0 cbr 800 ------- 0 13.8 8.0 0 1
- 1 13 0 cbr 800 ------- 0 13.8 8.0 0 1
+ 1 9 1 tcp 40 ------- 1 9.1 14.0 0 2
- 1.00032 9 1 tcp 40 ------- 1 9.1 14.0 0 2
+ 1.003321 13 0 cbr 800 ------- 0 13.8 8.0 1 3
+ 1.006035 13 0 cbr 800 ------- 0 13.8 8.0 2 4
- 1.0064 13 0 cbr 800 ------- 0 13.8 8.0 1 3
+ 1.011735 13 0 cbr 800 ------- 0 13.8 8.0 3 5
- 1.0128 13 0 cbr 800 ------- 0 13.8 8.0 2 4
+ 1.014804 13 0 cbr 800 ------- 0 13.8 8.0 4 6
- 1.0192 13 0 cbr 800 ------- 0 13.8 8.0 3 5
r 1.02032 9 1 tcp 40 ------- 1 9.0 12.0 0 0
+ 1.02032 1 12 tcp 40 ------- 1 9.0 12.0 0 0
- 1.02032 1 12 tcp 40 ------- 1 9.0 12.0 0 0
r 1.02064 9 1 tcp 40 ------- 1 9.1 14.0 0 2
+ 1.02064 1 2 tcp 40 ------- 1 9.1 14.0 0 2
- 1.02064 1 2 tcp 40 ------- 1 9.1 14.0 0 2
+ 1.021603 13 0 cbr 800 ------- 0 13.8 8.0 5 7
- 1.0256 13 0 cbr 800 ------- 0 13.8 8.0 4 6
+ 1.026221 13 0 cbr 800 ------- 0 13.8 8.0 6 8
r 1.0264 13 0 cbr 800 ------- 0 13.8 8.0 0 1
+ 1.0264 0 2 cbr 800 ------- 0 13.8 8.0 0 1
- 1.0264 0 2 cbr 800 ------- 0 13.8 8.0 0 1
+ 1.029595 13 0 cbr 800 ------- 0 13.8 8.0 7 9
- 1.032 13 0 cbr 800 ------- 0 13.8 8.0 5 7
+ 1.032566 13 0 cbr 800 ------- 0 13.8 8.0 8 10
r 1.0328 13 0 cbr 800 ------- 0 13.8 8.0 1 3
+ 1.0328 0 2 cbr 800 ------- 0 13.8 8.0 1 3
- 1.0328 0 2 cbr 800 ------- 0 13.8 8.0 1 3
- 1.0384 13 0 cbr 800 ------- 0 13.8 8.0 6 8
+ 1.039101 13 0 cbr 800 ------- 0 13.8 8.0 9 11
r 1.0392 13 0 cbr 800 ------- 0 13.8 8.0 2 4
+ 1.0392 0 2 cbr 800 ------- 0 13.8 8.0 2 4
- 1.0392 0 2 cbr 800 ------- 0 13.8 8.0 2 4
r 1.04064 1 12 tcp 40 ------- 1 9.0 12.0 0 0
+ 1.04064 12 1 ack 40 ------- 1 12.0 9.0 0 12
- 1.04064 12 1 ack 40 ------- 1 12.0 9.0 0 12
+ 1.043345 13 0 cbr 800 ------- 0 13.8 8.0 10 13
- 1.0448 13 0 cbr 800 ------- 0 13.8 8.0 7 9
r 1.0456 13 0 cbr 800 ------- 0 13.8 8.0 3 5
+ 1.0456 0 2 cbr 800 ------- 0 13.8 8.0 3 5
- 1.0456 0 2 cbr 800 ------- 0 13.8 8.0 3 5
+ 1.047135 13 0 cbr 800 ------- 0 13.8 8.0 11 14
- 1.0512 13 0 cbr 800 ------- 0 13.8 8.0 8 10
+ 1.051678 13 0 cbr 800 ------- 0 13.8 8.0 12 15
r 1.052 13 0 cbr 800 ------- 0 13.8 8.0 4 6
+ 1.052 0 2 cbr 800 ------- 0 13.8 8.0 4 6
- 1.052 0 2 cbr 800 ------- 0 13.8 8.0 4 6
+ 1.056772 13 0 cbr 800 ------- 0 13.8 8.0 13 16
- 1.0576 13 0 cbr 800 ------- 0 13.8 8.0 9 11
r 1.0584 13 0 cbr 800 ------- 0 13.8 8.0 5 7
+ 1.0584 0 2 cbr 800 ------- 0 13.8 8.0 5 7
- 1.0584 0 2 cbr 800 ------- 0 13.8 8.0 5 7
r 1.06096 12 1 ack 40 ------- 1 12.0 9.0 0 12
+ 1.06096 1 9 ack 40 ------- 1 12.0 9.0 0 12
- 1.06096 1 9 ack 40 ------- 1 12.0 9.0 0 12
+ 1.061602 13 0 cbr 800 ------- 0 13.8 8.0 14 17
- 1.064 13 0 cbr 800 ------- 0 13.8 8.0 10 13
r 1.0648 13 0 cbr 800 ------- 0 13.8 8.0 6 8
+ 1.0648 0 2 cbr 800 ------- 0 13.8 8.0 6 8
- 1.0648 0 2 cbr 800 ------- 0 13.8 8.0 6 8
+ 1.067564 13 0 cbr 800 ------- 0 13.8 8.0 15 18
r 1.0696 0 2 cbr 800 ------- 0 13.8 8.0 0 1
+ 1.0696 2 1 cbr 800 ------- 0 13.8 8.0 0 1
- 1.0696 2 1 cbr 800 ------- 0 13.8 8.0 0 1
- 1.0704 13 0 cbr 800 ------- 0 13.8 8.0 11 14
r 1.07068 1 2 tcp 40 ------- 1 9.1 14.0 0 2
+ 1.07068 2 0 tcp 40 ------- 1 9.1 14.0 0 2
- 1.07068 2 0 tcp 40 ------- 1 9.1 14.0 0 2
r 1.0712 13 0 cbr 800 ------- 0 13.8 8.0 7 9
+ 1.0712 0 2 cbr 800 ------- 0 13.8 8.0 7 9
- 1.0712 0 2 cbr 800 ------- 0 13.8 8.0 7 9
+ 1.074374 13 0 cbr 800 ------- 0 13.8 8.0 16 19
r 1.076 0 2 cbr 800 ------- 0 13.8 8.0 1 3
+ 1.076 2 1 cbr 800 ------- 0 13.8 8.0 1 3
- 1.076 2 1 cbr 800 ------- 0 13.8 8.0 1 3
- 1.0768 13 0 cbr 800 ------- 0 13.8 8.0 12 15
r 1.0776 13 0 cbr 800 ------- 0 13.8 8.0 8 10
+ 1.0776 0 2 cbr 800 ------- 0 13.8 8.0 8 10
- 1.0776 0 2 cbr 800 ------- 0 13.8 8.0 8 10
+ 1.081073 13 0 cbr 800 ------- 0 13.8 8.0 17 20
r 1.08128 1 9 ack 40 ------- 1 12.0 9.0 0 12
+ 1.08128 9 1 tcp 1040 ------- 1 9.0 12.0 1 21
- 1.08128 9 1 tcp 1040 ------- 1 9.0 12.0 1 21
+ 1.08128 9 1 tcp 1040 ------- 1 9.0 12.0 2 22
r 1.0824 0 2 cbr 800 ------- 0 13.8 8.0 2 4
+ 1.0824 2 1 cbr 800 ------- 0 13.8 8.0 2 4
- 1.0824 2 1 cbr 800 ------- 0 13.8 8.0 2 4
- 1.0832 13 0 cbr 800 ------- 0 13.8 8.0 13 16
r 1.084 13 0 cbr 800 ------- 0 13.8 8.0 9 11
+ 1.084 0 2 cbr 800 ------- 0 13.8 8.0 9 11
- 1.084 0 2 cbr 800 ------- 0 13.8 8.0 9 11
+ 1.084659 13 0 cbr 800 ------- 0 13.8 8.0 18 23
+ 1.088365 13 0 cbr 800 ------- 0 13.8 8.0 19 24
r 1.0888 0 2 cbr 800 ------- 0 13.8 8.0 3 5
+ 1.0888 2 1 cbr 800 ------- 0 13.8 8.0 3 5
- 1.0888 2 1 cbr 800 ------- 0 13.8 8.0 3 5
- 1.0896 13 0 cbr 800 ------- 0 13.8 8.0 14 17
- 1.0896 9 1 tcp 1040 ------- 1 9.0 12.0 2 22
r 1.0904 13 0 cbr 800 ------- 0 13.8 8.0 10 13
+ 1.0904 0 2 cbr 800 ------- 0 13.8 8.0 10 13
- 1.0904 0 2 cbr 800 ------- 0 13.8 8.0 10 13
+ 1.095121 13 0 cbr 800 ------- 0 13.8 8.0 20 25
r 1.0952 0 2 cbr 800 ------- 0 13.8 8.0 4 6
+ 1.0952 2 1 cbr 800 ------- 0 13.8 8.0 4 6
- 1.0952 2 1 cbr 800 ------- 0 13.8 8.0 4 6
- 1.096 13 0 cbr 800 ------- 0 13.8 8.0 15 18
r 1.0968 13 0 cbr 800 ------- 0 13.8 8.0 11 14
+ 1.0968 0 2 cbr 800 ------- 0 13.8 8.0 11 14
- 1.0968 0 2 cbr 800 ------- 0 13.8 8.0 11 14
+ 1.101007 13 0 cbr 800 ------- 0 13.8 8.0 21 26
r 1.1016 0 2 cbr 800 ------- 0 13.8 8.0 5 7
+ 1.1016 2 1 cbr 800 ------- 0 13.8 8.0 5 7
- 1.1016 2 1 cbr 800 ------- 0 13.8 8.0 5 7
- 1.1024 13 0 cbr 800 ------- 0 13.8 8.0 16 19
r 1.1032 13 0 cbr 800 ------- 0 13.8 8.0 12 15
+ 1.1032 0 2 cbr 800 ------- 0 13.8 8.0 12 15
- 1.1032 0 2 cbr 800 ------- 0 13.8 8.0 12 15
+ 1.107319 13 0 cbr 800 ------- 0 13.8 8.0 22 27
r 1.108 0 2 cbr 800 ------- 0 13.8 8.0 6 8
+ 1.108 2 1 cbr 800 ------- 0 13.8 8.0 6 8
- 1.108 2 1 cbr 800 ------- 0 13.8 8.0 6 8
- 1.1088 13 0 cbr 800 ------- 0 13.8 8.0 17 20
r 1.1096 9 1 tcp 1040 ------- 1 9.0 12.0 1 21
+ 1.1096 1 12 tcp 1040 ------- 1 9.0 12.0 1 21
- 1.1096 1 12 tcp 1040 ------- 1 9.0 12.0 1 21
r 1.1096 13 0 cbr 800 ------- 0 13.8 8.0 13 16
+ 1.1096 0 2 cbr 800 ------- 0 13.8 8.0 13 16
- 1.1096 0 2 cbr 800 ------- 0 13.8 8.0 13 16
r 1.11084 2 0 tcp 40 ------- 1 9.1 14.0 0 2
+ 1.11084 0 14 tcp 40 ------- 1 9.1 14.0 0 2
- 1.11084 0 14 tcp 40 ------- 1 9.1 14.0 0 2
+ 1.114343 13 0 cbr 800 ------- 0 13.8 8.0 23 28
r 1.1144 0 2 cbr 800 ------- 0 13.8 8.0 7 9
+ 1.1144 2 1 cbr 800 ------- 0 13.8 8.0 7 9
- 1.1144 2 1 cbr 800 ------- 0 13.8 8.0 7 9
- 1.1152 13 0 cbr 800 ------- 0 13.8 8.0 18 23
r 1.116 13 0 cbr 800 ------- 0 13.8 8.0 14 17
+ 1.116 0 2 cbr 800 ------- 0 13.8 8.0 14 17
- 1.116 0 2 cbr 800 ------- 0 13.8 8.0 14 17
r 1.11792 9 1 tcp 1040 ------- 1 9.0 12.0 2 22
+ 1.11792 1 12 tcp 1040 ------- 1 9.0 12.0 2 22
- 1.11792 1 12 tcp 1040 ------- 1 9.0 12.0 2 22
+ 1.118871 13 0 cbr 800 ------- 0 13.8 8.0 24 29
r 1.1204 2 1 cbr 800 ------- 0 13.8 8.0 0 1
+ 1.1204 1 8 cbr 800 ------- 0 13.8 8.0 0 1
- 1.1204 1 8 cbr 800 ------- 0 13.8 8.0 0 1
r 1.1208 0 2 cbr 800 ------- 0 13.8 8.0 8 10
+ 1.1208 2 1 cbr 800 ------- 0 13.8 8.0 8 10
- 1.1208 2 1 cbr 800 ------- 0 13.8 8.0 8 10
- 1.1216 13 0 cbr 800 ------- 0 13.8 8.0 19 24
+ 1.121917 13 0 cbr 800 ------- 0 13.8 8.0 25 30
r 1.1224 13 0 cbr 800 ------- 0 13.8 8.0 15 18
+ 1.1224 0 2 cbr 800 ------- 0 13.8 8.0 15 18
- 1.1224 0 2 cbr 800 ------- 0 13.8 8.0 15 18
+ 1.126438 13 0 cbr 800 ------- 0 13.8 8.0 26 31
r 1.1268 2 1 cbr 800 ------- 0 13.8 8.0 1 3
+ 1.1268 1 8 cbr 800 ------- 0 13.8 8.0 1 3
- 1.1268 1 8 cbr 800 ------- 0 13.8 8.0 1 3
r 1.1272 0 2 cbr 800 ------- 0 13.8 8.0 9 11
+ 1.1272 2 1 cbr 800 ------- 0 13.8 8.0 9 11
- 1.1272 2 1 cbr 800 ------- 0 13.8 8.0 9 11
- 1.128 13 0 cbr 800 ------- 0 13.8 8.0 20 25
r 1.1288 13 0 cbr 800 ------- 0 13.8 8.0 16 19
+ 1.1288 0 2 cbr 800 ------- 0 13.8 8.0 16 19
- 1.1288 0 2 cbr 800 ------- 0 13.8 8.0 16 19
+ 1.129875 13 0 cbr 800 ------- 0 13.8 8.0 27 32
r 1.13116 0 14 tcp 40 ------- 1 9.1 14.0 0 2
+ 1.13116 14 0 ack 40 ------- 1 14.0 9.1 0 33
- 1.13116 14 0 ack 40 ------- 1 14.0 9.1 0 33
r 1.1332 2 1 cbr 800 ------- 0 13.8 8.0 2 4
+ 1.1332 1 8 cbr 800 ------- 0 13.8 8.0 2 4
- 1.1332 1 8 cbr 800 ------- 0 13.8 8.0 2 4
r 1.1336 0 2 cbr 800 ------- 0 13.8 8.0 10 13
+ 1.1336 2 1 cbr 800 ------- 0 13.8 8.0 10 13
- 1.1336 2 1 cbr 800 ------- 0 13.8 8.0 10 13
- 1.1344 13 0 cbr 800 ------- 0 13.8 8.0 21 26
r 1.1352 13 0 cbr 800 ------- 0 13.8 8.0 17 20
+ 1.1352 0 2 cbr 800 ------- 0 13.8 8.0 17 20
- 1.1352 0 2 cbr 800 ------- 0 13.8 8.0 17 20
+ 1.136812 13 0 cbr 800 ------- 0 13.8 8.0 28 34
r 1.13792 1 12 tcp 1040 ------- 1 9.0 12.0 1 21
+ 1.13792 12 1 ack 40 ------- 1 12.0 9.0 1 35
- 1.13792 12 1 ack 40 ------- 1 12.0 9.0 1 35
r 1.1396 2 1 cbr 800 ------- 0 13.8 8.0 3 5
+ 1.1396 1 8 cbr 800 ------- 0 13.8 8.0 3 5
- 1.1396 1 8 cbr 800 ------- 0 13.8 8.0 3 5
r 1.14 0 2 cbr 800 ------- 0 13.8 8.0 11 14
+ 1.14 2 1 cbr 800 ------- 0 13.8 8.0 11 14
- 1.14 2 1 cbr 800 ------- 0 13.8 8.0 11 14
- 1.1408 13 0 cbr 800 ------- 0 13.8 8.0 22 27
r 1.1416 13 0 cbr 800 ------- 0 13.8 8.0 18 23
+ 1.1416 0 2 cbr 800 ------- 0 13.8 8.0 18 23
- 1.1416 0 2 cbr 800 ------- 0 13.8 8.0 18 23
+ 1.144043 13 0 cbr 800 ------- 0 13.8 8.0 29 36
r 1.146 2 1 cbr 800 ------- 0 13.8 8.0 4 6
+ 1.146 1 8 cbr 800 ------- 0 13.8 8.0 4 6
- 1.146 1 8 cbr 800 ------- 0 13.8 8.0 4 6
r 1.14624 1 12 tcp 1040 ------- 1 9.0 12.0 2 22
+ 1.14624 12 1 ack 40 ------- 1 12.0 9.0 2 37
- 1.14624 12 1 ack 40 ------- 1 12.0 9.0 2 37
r 1.1464 0 2 cbr 800 ------- 0 13.8 8.0 12 15
+ 1.1464 2 1 cbr 800 ------- 0 13.8 8.0 12 15
- 1.1464 2 1 cbr 800 ------- 0 13.8 8.0 12 15
r 1.1468 1 8 cbr 800 ------- 0 13.8 8.0 0 1
- 1.1472 13 0 cbr 800 ------- 0 13.8 8.0 23 28
r 1.148 13 0 cbr 800 ------- 0 13.8 8.0 19 24
+ 1.148 0 2 cbr 800 ------- 0 13.8 8.0 19 24
- 1.148 0 2 cbr 800 ------- 0 13.8 8.0 19 24
+ 1.151 13 0 cbr 800 ------- 0 13.8 8.0 30 38
r 1.15148 14 0 ack 40 ------- 1 14.0 9.1 0 33
+ 1.15148 0 2 ack 40 ------- 1 14.0 9.1 0 33
- 1.15148 0 2 ack 40 ------- 1 14.0 9.1 0 33
r 1.1524 2 1 cbr 800 ------- 0 13.8 8.0 5 7
+ 1.1524 1 8 cbr 800 ------- 0 13.8 8.0 5 7
- 1.1524 1 8 cbr 800 ------- 0 13.8 8.0 5 7
r 1.1528 0 2 cbr 800 ------- 0 13.8 8.0 13 16
+ 1.1528 2 1 cbr 800 ------- 0 13.8 8.0 13 16
- 1.1528 2 1 cbr 800 ------- 0 13.8 8.0 13 16
r 1.1532 1 8 cbr 800 ------- 0 13.8 8.0 1 3
- 1.1536 13 0 cbr 800 ------- 0 13.8 8.0 24 29
+ 1.15406 13 0 cbr 800 ------- 0 13.8 8.0 31 39
r 1.1544 13 0 cbr 800 ------- 0 13.8 8.0 20 25
+ 1.1544 0 2 cbr 800 ------- 0 13.8 8.0 20 25
- 1.1544 0 2 cbr 800 ------- 0 13.8 8.0 20 25
+ 1.156852 13 0 cbr 800 ------- 0 13.8 8.0 32 40
r 1.15824 12 1 ack 40 ------- 1 12.0 9.0 1 35
+ 1.15824 1 9 ack 40 ------- 1 12.0 9.0 1 35
- 1.15824 1 9 ack 40 ------- 1 12.0 9.0 1 35
r 1.1588 2 1 cbr 800 ------- 0 13.8 8.0 6 8
+ 1.1588 1 8 cbr 800 ------- 0 13.8 8.0 6 8
- 1.1588 1 8 cbr 800 ------- 0 13.8 8.0 6 8
r 1.1592 0 2 cbr 800 ------- 0 13.8 8.0 14 17
+ 1.1592 2 1 cbr 800 ------- 0 13.8 8.0 14 17
- 1.1592 2 1 cbr 800 ------- 0 13.8 8.0 14 17
+ 1.159406 13 0 cbr 800 ------- 0 13.8 8.0 33 41
r 1.1596 1 8 cbr 800 ------- 0 13.8 8.0 2 4
- 1.16 13 0 cbr 800 ------- 0 13.8 8.0 25 30
r 1.1608 13 0 cbr 800 ------- 0 13.8 8.0 21 26
+ 1.1608 0 2 cbr 800 ------- 0 13.8 8.0 21 26
- 1.1608 0 2 cbr 800 ------- 0 13.8 8.0 21 26
+ 1.164881 13 0 cbr 800 ------- 0 13.8 8.0 34 42
r 1.1652 2 1 cbr 800 ------- 0 13.8 8.0 7 9
+ 1.1652 1 8 cbr 800 ------- 0 13.8 8.0 7 9
- 1.1652 1 8 cbr 800 ------- 0 13.8 8.0 7 9
r 1.1656 0 2 cbr 800 ------- 0 13.8 8.0 15 18
+ 1.1656 2 1 cbr 800 ------- 0 13.8 8.0 15 18
- 1.1656 2 1 cbr 800 ------- 0 13.8 8.0 15 18
r 1.166 1 8 cbr 800 ------- 0 13.8 8.0 3 5
- 1.1664 13 0 cbr 800 ------- 0 13.8 8.0 26 31
r 1.16656 12 1 ack 40 ------- 1 12.0 9.0 2 37
+ 1.16656 1 9 ack 40 ------- 1 12.0 9.0 2 37
- 1.16656 1 9 ack 40 ------- 1 12.0 9.0 2 37
r 1.1672 13 0 cbr 800 ------- 0 13.8 8.0 22 27
+ 1.1672 0 2 cbr 800 ------- 0 13.8 8.0 22 27
- 1.1672 0 2 cbr 800 ------- 0 13.8 8.0 22 27
+ 1.16906 13 0 cbr 800 ------- 0 13.8 8.0 35 43
r 1.1716 2 1 cbr 800 ------- 0 13.8 8.0 8 10
+ 1.1716 1 8 cbr 800 ------- 0 13.8 8.0 8 10
- 1.1716 1 8 cbr 800 ------- 0 13.8 8.0 8 10
r 1.172 0 2 cbr 800 ------- 0 13.8 8.0 16 19
+ 1.172 2 1 cbr 800 ------- 0 13.8 8.0 16 19
- 1.172 2 1 cbr 800 ------- 0 13.8 8.0 16 19
+ 1.172175 13 0 cbr 800 ------- 0 13.8 8.0 36 44
r 1.1724 1 8 cbr 800 ------- 0 13.8 8.0 4 6
- 1.1728 13 0 cbr 800 ------- 0 13.8 8.0 27 32
r 1.1736 13 0 cbr 800 ------- 0 13.8 8.0 23 28
+ 1.1736 0 2 cbr 800 ------- 0 13.8 8.0 23 28
- 1.1736 0 2 cbr 800 ------- 0 13.8 8.0 23 28
r 1.178 2 1 cbr 800 ------- 0 13.8 8.0 9 11
+ 1.178 1 8 cbr 800 ------- 0 13.8 8.0 9 11
- 1.178 1 8 cbr 800 ------- 0 13.8 8.0 9 11
+ 1.178018 13 0 cbr 800 ------- 0 13.8 8.0 37 45
r 1.1784 0 2 cbr 800 ------- 0 13.8 8.0 17 20
+ 1.1784 2 1 cbr 800 ------- 0 13.8 8.0 17 20
- 1.1784 2 1 cbr 800 ------- 0 13.8 8.0 17 20
r 1.17856 1 9 ack 40 ------- 1 12.0 9.0 1 35
+ 1.17856 9 1 tcp 1040 ------- 1 9.0 12.0 3 46
- 1.17856 9 1 tcp 1040 ------- 1 9.0 12.0 3 46
+ 1.17856 9 1 tcp 1040 ------- 1 9.0 12.0 4 47
r 1.1788 1 8 cbr 800 ------- 0 13.8 8.0 5 7
- 1.1792 13 0 cbr 800 ------- 0 13.8 8.0 28 34
r 1.18 13 0 cbr 800 ------- 0 13.8 8.0 24 29
+ 1.18 0 2 cbr 800 ------- 0 13.8 8.0 24 29
- 1.18 0 2 cbr 800 ------- 0 13.8 8.0 24 29
+ 1.181803 13 0 cbr 800 ------- 0 13.8 8.0 38 48
r 1.1844 2 1 cbr 800 ------- 0 13.8 8.0 10 13
+ 1.1844 1 8 cbr 800 ------- 0 13.8 8.0 10 13
- 1.1844 1 8 cbr 800 ------- 0 13.8 8.0 10 13
r 1.1848 0 2 cbr 800 ------- 0 13.8 8.0 18 23
+ 1.1848 2 1 cbr 800 ------- 0 13.8 8.0 18 23
- 1.1848 2 1 cbr 800 ------- 0 13.8 8.0 18 23
r 1.1852 1 8 cbr 800 ------- 0 13.8 8.0 6 8
- 1.1856 13 0 cbr 800 ------- 0 13.8 8.0 29 36
r 1.1864 13 0 cbr 800 ------- 0 13.8 8.0 25 30
+ 1.1864 0 2 cbr 800 ------- 0 13.8 8.0 25 30
- 1.1864 0 2 cbr 800 ------- 0 13.8 8.0 25 30
r 1.18688 1 9 ack 40 ------- 1 12.0 9.0 2 37
+ 1.18688 9 1 tcp 1040 ------- 1 9.0 12.0 5 49
+ 1.18688 9 1 tcp 1040 ------- 1 9.0 12.0 6 50
- 1.18688 9 1 tcp 1040 ------- 1 9.0 12.0 4 47
+ 1.187797 13 0 cbr 800 ------- 0 13.8 8.0 39 51
r 1.1908 2 1 cbr 800 ------- 0 13.8 8.0 11 14
+ 1.1908 1 8 cbr 800 ------- 0 13.8 8.0 11 14
- 1.1908 1 8 cbr 800 ------- 0 13.8 8.0 11 14
r 1.1912 0 2 cbr 800 ------- 0 13.8 8.0 19 24
+ 1.1912 2 1 cbr 800 ------- 0 13.8 8.0 19 24
- 1.1912 2 1 cbr 800 ------- 0 13.8 8.0 19 24
r 1.1916 1 8 cbr 800 ------- 0 13.8 8.0 7 9
r 1.19164 0 2 ack 40 ------- 1 14.0 9.1 0 33
+ 1.19164 2 1 ack 40 ------- 1 14.0 9.1 0 33
- 1.192 13 0 cbr 800 ------- 0 13.8 8.0 30 38
- 1.192 2 1 ack 40 ------- 1 14.0 9.1 0 33
r 1.1928 13 0 cbr 800 ------- 0 13.8 8.0 26 31
+ 1.1928 0 2 cbr 800 ------- 0 13.8 8.0 26 31
- 1.1928 0 2 cbr 800 ------- 0 13.8 8.0 26 31
+ 1.193021 13 0 cbr 800 ------- 0 13.8 8.0 40 52
- 1.1952 9 1 tcp 1040 ------- 1 9.0 12.0 5 49
r 1.1972 2 1 cbr 800 ------- 0 13.8 8.0 12 15
+ 1.1972 1 8 cbr 800 ------- 0 13.8 8.0 12 15
- 1.1972 1 8 cbr 800 ------- 0 13.8 8.0 12 15
r 1.1976 0 2 cbr 800 ------- 0 13.8 8.0 20 25
+ 1.1976 2 1 cbr 800 ------- 0 13.8 8.0 20 25
- 1.1976 2 1 cbr 800 ------- 0 13.8 8.0 20 25
r 1.198 1 8 cbr 800 ------- 0 13.8 8.0 8 10
- 1.1984 13 0 cbr 800 ------- 0 13.8 8.0 31 39
r 1.1992 13 0 cbr 800 ------- 0 13.8 8.0 27 32
+ 1.1992 0 2 cbr 800 ------- 0 13.8 8.0 27 32
- 1.1992 0 2 cbr 800 ------- 0 13.8 8.0 27 32
+ 1.199904 13 0 cbr 800 ------- 0 13.8 8.0 41 53
- 1.20352 9 1 tcp 1040 ------- 1 9.0 12.0 6 50
r 1.2036 2 1 cbr 800 ------- 0 13.8 8.0 13 16
+ 1.2036 1 8 cbr 800 ------- 0 13.8 8.0 13 16
- 1.2036 1 8 cbr 800 ------- 0 13.8 8.0 13 16
+ 1.203713 13 0 cbr 800 ------- 0 13.8 8.0 42 54
r 1.204 0 2 cbr 800 ------- 0 13.8 8.0 21 26
+ 1.204 2 1 cbr 800 ------- 0 13.8 8.0 21 26
- 1.204 2 1 cbr 800 ------- 0 13.8 8.0 21 26
r 1.2044 1 8 cbr 800 ------- 0 13.8 8.0 9 11
- 1.2048 13 0 cbr 800 ------- 0 13.8 8.0 32 40
r 1.2056 13 0 cbr 800 ------- 0 13.8 8.0 28 34
+ 1.2056 0 2 cbr 800 ------- 0 13.8 8.0 28 34
- 1.2056 0 2 cbr 800 ------- 0 13.8 8.0 28 34
r 1.20688 9 1 tcp 1040 ------- 1 9.0 12.0 3 46
+ 1.20688 1 12 tcp 1040 ------- 1 9.0 12.0 3 46
- 1.20688 1 12 tcp 1040 ------- 1 9.0 12.0 3 46
+ 1.208987 13 0 cbr 800 ------- 0 13.8 8.0 43 55
r 1.21 2 1 cbr 800 ------- 0 13.8 8.0 14 17
+ 1.21 1 8 cbr 800 ------- 0 13.8 8.0 14 17
- 1.21 1 8 cbr 800 ------- 0 13.8 8.0 14 17
r 1.2104 0 2 cbr 800 ------- 0 13.8 8.0 22 27
+ 1.2104 2 1 cbr 800 ------- 0 13.8 8.0 22 27
- 1.2104 2 1 cbr 800 ------- 0 13.8 8.0 22 27
r 1.2108 1 8 cbr 800 ------- 0 13.8 8.0 10 13
- 1.2112 13 0 cbr 800 ------- 0 13.8 8.0 33 41
r 1.212 13 0 cbr 800 ------- 0 13.8 8.0 29 36
+ 1.212 0 2 cbr 800 ------- 0 13.8 8.0 29 36
- 1.212 0 2 cbr 800 ------- 0 13.8 8.0 29 36
+ 1.213616 13 0 cbr 800 ------- 0 13.8 8.0 44 56
r 1.2152 9 1 tcp 1040 ------- 1 9.0 12.0 4 47
+ 1.2152 1 12 tcp 1040 ------- 1 9.0 12.0 4 47
- 1.2152 1 12 tcp 1040 ------- 1 9.0 12.0 4 47
+ 1.216254 13 0 cbr 800 ------- 0 13.8 8.0 45 57
r 1.2164 2 1 cbr 800 ------- 0 13.8 8.0 15 18
+ 1.2164 1 8 cbr 800 ------- 0 13.8 8.0 15 18
- 1.2164 1 8 cbr 800 ------- 0 13.8 8.0 15 18
r 1.2168 0 2 cbr 800 ------- 0 13.8 8.0 23 28
+ 1.2168 2 1 cbr 800 ------- 0 13.8 8.0 23 28
- 1.2168 2 1 cbr 800 ------- 0 13.8 8.0 23 28
r 1.2172 1 8 cbr 800 ------- 0 13.8 8.0 11 14
- 1.2176 13 0 cbr 800 ------- 0 13.8 8.0 34 42
r 1.2184 13 0 cbr 800 ------- 0 13.8 8.0 30 38
+ 1.2184 0 2 cbr 800 ------- 0 13.8 8.0 30 38
- 1.2184 0 2 cbr 800 ------- 0 13.8 8.0 30 38
+ 1.22039 13 0 cbr 800 ------- 0 13.8 8.0 46 58
r 1.2228 2 1 cbr 800 ------- 0 13.8 8.0 16 19
+ 1.2228 1 8 cbr 800 ------- 0 13.8 8.0 16 19
- 1.2228 1 8 cbr 800 ------- 0 13.8 8.0 16 19
r 1.2232 0 2 cbr 800 ------- 0 13.8 8.0 24 29
+ 1.2232 2 1 cbr 800 ------- 0 13.8 8.0 24 29
- 1.2232 2 1 cbr 800 ------- 0 13.8 8.0 24 29
r 1.22352 9 1 tcp 1040 ------- 1 9.0 12.0 5 49
+ 1.22352 1 12 tcp 1040 ------- 1 9.0 12.0 5 49
- 1.22352 1 12 tcp 1040 ------- 1 9.0 12.0 5 49
r 1.2236 1 8 cbr 800 ------- 0 13.8 8.0 12 15
+ 1.223821 13 0 cbr 800 ------- 0 13.8 8.0 47 59
- 1.224 13 0 cbr 800 ------- 0 13.8 8.0 35 43
r 1.2248 13 0 cbr 800 ------- 0 13.8 8.0 31 39
+ 1.2248 0 2 cbr 800 ------- 0 13.8 8.0 31 39
- 1.2248 0 2 cbr 800 ------- 0 13.8 8.0 31 39
r 1.2292 2 1 cbr 800 ------- 0 13.8 8.0 17 20
+ 1.2292 1 8 cbr 800 ------- 0 13.8 8.0 17 20
- 1.2292 1 8 cbr 800 ------- 0 13.8 8.0 17 20
r 1.2296 0 2 cbr 800 ------- 0 13.8 8.0 25 30
+ 1.2296 2 1 cbr 800 ------- 0 13.8 8.0 25 30
- 1.2296 2 1 cbr 800 ------- 0 13.8 8.0 25 30
r 1.23 1 8 cbr 800 ------- 0 13.8 8.0 13 16
+ 1.230246 13 0 cbr 800 ------- 0 13.8 8.0 48 60
- 1.2304 13 0 cbr 800 ------- 0 13.8 8.0 36 44
r 1.2312 13 0 cbr 800 ------- 0 13.8 8.0 32 40
+ 1.2312 0 2 cbr 800 ------- 0 13.8 8.0 32 40
- 1.2312 0 2 cbr 800 ------- 0 13.8 8.0 32 40
r 1.23184 9 1 tcp 1040 ------- 1 9.0 12.0 6 50
+ 1.23184 1 12 tcp 1040 ------- 1 9.0 12.0 6 50
- 1.23184 1 12 tcp 1040 ------- 1 9.0 12.0 6 50
r 1.2352 1 12 tcp 1040 ------- 1 9.0 12.0 3 46
+ 1.2352 12 1 ack 40 ------- 1 12.0 9.0 3 61
- 1.2352 12 1 ack 40 ------- 1 12.0 9.0 3 61
r 1.2356 2 1 cbr 800 ------- 0 13.8 8.0 18 23
+ 1.2356 1 8 cbr 800 ------- 0 13.8 8.0 18 23
- 1.2356 1 8 cbr 800 ------- 0 13.8 8.0 18 23
r 1.236 0 2 cbr 800 ------- 0 13.8 8.0 26 31
+ 1.236 2 1 cbr 800 ------- 0 13.8 8.0 26 31
- 1.236 2 1 cbr 800 ------- 0 13.8 8.0 26 31
r 1.2364 1 8 cbr 800 ------- 0 13.8 8.0 14 17
- 1.2368 13 0 cbr 800 ------- 0 13.8 8.0 37 45
+ 1.23748 13 0 cbr 800 ------- 0 13.8 8.0 49 62
r 1.2376 13 0 cbr 800 ------- 0 13.8 8.0 33 41
+ 1.2376 0 2 cbr 800 ------- 0 13.8 8.0 33 41
- 1.2376 0 2 cbr 800 ------- 0 13.8 8.0 33 41
r 1.242 2 1 cbr 800 ------- 0 13.8 8.0 19 24
+ 1.242 1 8 cbr 800 ------- 0 13.8 8.0 19 24
- 1.242 1 8 cbr 800 ------- 0 13.8 8.0 19 24
r 1.24204 2 1 ack 40 ------- 1 14.0 9.1 0 33
+ 1.24204 1 9 ack 40 ------- 1 14.0 9.1 0 33
- 1.24204 1 9 ack 40 ------- 1 14.0 9.1 0 33
r 1.2424 0 2 cbr 800 ------- 0 13.8 8.0 27 32
+ 1.2424 2 1 cbr 800 ------- 0 13.8 8.0 27 32
- 1.2424 2 1 cbr 800 ------- 0 13.8 8.0 27 32
r 1.2428 1 8 cbr 800 ------- 0 13.8 8.0 15 18
- 1.2432 13 0 cbr 800 ------- 0 13.8 8.0 38 48
r 1.24352 1 12 tcp 1040 ------- 1 9.0 12.0 4 47
+ 1.24352 12 1 ack 40 ------- 1 12.0 9.0 4 63
- 1.24352 12 1 ack 40 ------- 1 12.0 9.0 4 63
+ 1.243844 13 0 cbr 800 ------- 0 13.8 8.0 50 64
r 1.244 13 0 cbr 800 ------- 0 13.8 8.0 34 42
+ 1.244 0 2 cbr 800 ------- 0 13.8 8.0 34 42
- 1.244 0 2 cbr 800 ------- 0 13.8 8.0 34 42
+ 1.247377 13 0 cbr 800 ------- 0 13.8 8.0 51 65
r 1.2484 2 1 cbr 800 ------- 0 13.8 8.0 20 25
+ 1.2484 1 8 cbr 800 ------- 0 13.8 8.0 20 25
- 1.2484 1 8 cbr 800 ------- 0 13.8 8.0 20 25
r 1.2488 0 2 cbr 800 ------- 0 13.8 8.0 28 34
+ 1.2488 2 1 cbr 800 ------- 0 13.8 8.0 28 34
- 1.2488 2 1 cbr 800 ------- 0 13.8 8.0 28 34
r 1.2492 1 8 cbr 800 ------- 0 13.8 8.0 16 19
- 1.2496 13 0 cbr 800 ------- 0 13.8 8.0 39 51
r 1.2504 13 0 cbr 800 ------- 0 13.8 8.0 35 43
+ 1.2504 0 2 cbr 800 ------- 0 13.8 8.0 35 43
- 1.2504 0 2 cbr 800 ------- 0 13.8 8.0 35 43
r 1.25184 1 12 tcp 1040 ------- 1 9.0 12.0 5 49
+ 1.25184 12 1 ack 40 ------- 1 12.0 9.0 5 66
- 1.25184 12 1 ack 40 ------- 1 12.0 9.0 5 66
+ 1.253352 13 0 cbr 800 ------- 0 13.8 8.0 52 67
r 1.2548 2 1 cbr 800 ------- 0 13.8 8.0 21 26
+ 1.2548 1 8 cbr 800 ------- 0 13.8 8.0 21 26
- 1.2548 1 8 cbr 800 ------- 0 13.8 8.0 21 26
r 1.2552 0 2 cbr 800 ------- 0 13.8 8.0 29 36
+ 1.2552 2 1 cbr 800 ------- 0 13.8 8.0 29 36
- 1.2552 2 1 cbr 800 ------- 0 13.8 8.0 29 36
r 1.25552 12 1 ack 40 ------- 1 12.0 9.0 3 61
+ 1.25552 1 9 ack 40 ------- 1 12.0 9.0 3 61
- 1.25552 1 9 ack 40 ------- 1 12.0 9.0 3 61
r 1.2556 1 8 cbr 800 ------- 0 13.8 8.0 17 20
- 1.256 13 0 cbr 800 ------- 0 13.8 8.0 40 52
+ 1.256746 13 0 cbr 800 ------- 0 13.8 8.0 53 68
r 1.2568 13 0 cbr 800 ------- 0 13.8 8.0 36 44
+ 1.2568 0 2 cbr 800 ------- 0 13.8 8.0 36 44
- 1.2568 0 2 cbr 800 ------- 0 13.8 8.0 36 44
r 1.26016 1 12 tcp 1040 ------- 1 9.0 12.0 6 50
+ 1.26016 12 1 ack 40 ------- 1 12.0 9.0 6 69
- 1.26016 12 1 ack 40 ------- 1 12.0 9.0 6 69
r 1.2612 2 1 cbr 800 ------- 0 13.8 8.0 22 27
+ 1.2612 1 8 cbr 800 ------- 0 13.8 8.0 22 27
- 1.2612 1 8 cbr 800 ------- 0 13.8 8.0 22 27
r 1.2616 0 2 cbr 800 ------- 0 13.8 8.0 30 38
+ 1.2616 2 1 cbr 800 ------- 0 13.8 8.0 30 38
- 1.2616 2 1 cbr 800 ------- 0 13.8 8.0 30 38
r 1.262 1 8 cbr 800 ------- 0 13.8 8.0 18 23
r 1.26236 1 9 ack 40 ------- 1 14.0 9.1 0 33
+ 1.26236 9 1 tcp 1040 ------- 1 9.1 14.0 1 70
- 1.26236 9 1 tcp 1040 ------- 1 9.1 14.0 1 70
+ 1.26236 9 1 tcp 1040 ------- 1 9.1 14.0 2 71
- 1.2624 13 0 cbr 800 ------- 0 13.8 8.0 41 53
r 1.2632 13 0 cbr 800 ------- 0 13.8 8.0 37 45
+ 1.2632 0 2 cbr 800 ------- 0 13.8 8.0 37 45
- 1.2632 0 2 cbr 800 ------- 0 13.8 8.0 37 45
r 1.26384 12 1 ack 40 ------- 1 12.0 9.0 4 63
+ 1.26384 1 9 ack 40 ------- 1 12.0 9.0 4 63
- 1.26384 1 9 ack 40 ------- 1 12.0 9.0 4 63
+ 1.264126 13 0 cbr 800 ------- 0 13.8 8.0 54 72
+ 1.267083 13 0 cbr 800 ------- 0 13.8 8.0 55 73
r 1.2676 2 1 cbr 800 ------- 0 13.8 8.0 23 28
+ 1.2676 1 8 cbr 800 ------- 0 13.8 8.0 23 28
- 1.2676 1 8 cbr 800 ------- 0 13.8 8.0 23 28
r 1.268 0 2 cbr 800 ------- 0 13.8 8.0 31 39
+ 1.268 2 1 cbr 800 ------- 0 13.8 8.0 31 39
- 1.268 2 1 cbr 800 ------- 0 13.8 8.0 31 39
r 1.2684 1 8 cbr 800 ------- 0 13.8 8.0 19 24
- 1.2688 13 0 cbr 800 ------- 0 13.8 8.0 42 54
r 1.2696 13 0 cbr 800 ------- 0 13.8 8.0 38 48
+ 1.2696 0 2 cbr 800 ------- 0 13.8 8.0 38 48
- 1.2696 0 2 cbr 800 ------- 0 13.8 8.0 38 48
- 1.27068 9 1 tcp 1040 ------- 1 9.1 14.0 2 71
+ 1.272041 13 0 cbr 800 ------- 0 13.8 8.0 56 74
r 1.27216 12 1 ack 40 ------- 1 12.0 9.0 5 66
+ 1.27216 1 9 ack 40 ------- 1 12.0 9.0 5 66
- 1.27216 1 9 ack 40 ------- 1 12.0 9.0 5 66
r 1.274 2 1 cbr 800 ------- 0 13.8 8.0 24 29
+ 1.274 1 8 cbr 800 ------- 0 13.8 8.0 24 29
- 1.274 1 8 cbr 800 ------- 0 13.8 8.0 24 29
r 1.2744 0 2 cbr 800 ------- 0 13.8 8.0 32 40
+ 1.2744 2 1 cbr 800 ------- 0 13.8 8.0 32 40
- 1.2744 2 1 cbr 800 ------- 0 13.8 8.0 32 40
+ 1.274792 13 0 cbr 800 ------- 0 13.8 8.0 57 75
r 1.2748 1 8 cbr 800 ------- 0 13.8 8.0 20 25
- 1.2752 13 0 cbr 800 ------- 0 13.8 8.0 43 55
r 1.27584 1 9 ack 40 ------- 1 12.0 9.0 3 61
+ 1.27584 9 1 tcp 1040 ------- 1 9.0 12.0 7 76
+ 1.27584 9 1 tcp 1040 ------- 1 9.0 12.0 8 77
r 1.276 13 0 cbr 800 ------- 0 13.8 8.0 39 51
+ 1.276 0 2 cbr 800 ------- 0 13.8 8.0 39 51
- 1.276 0 2 cbr 800 ------- 0 13.8 8.0 39 51
- 1.279 9 1 tcp 1040 ------- 1 9.0 12.0 7 76
r 1.2804 2 1 cbr 800 ------- 0 13.8 8.0 25 30
+ 1.2804 1 8 cbr 800 ------- 0 13.8 8.0 25 30
- 1.2804 1 8 cbr 800 ------- 0 13.8 8.0 25 30
r 1.28048 12 1 ack 40 ------- 1 12.0 9.0 6 69
+ 1.28048 1 9 ack 40 ------- 1 12.0 9.0 6 69
- 1.28048 1 9 ack 40 ------- 1 12.0 9.0 6 69
r 1.2808 0 2 cbr 800 ------- 0 13.8 8.0 33 41
+ 1.2808 2 1 cbr 800 ------- 0 13.8 8.0 33 41
- 1.2808 2 1 cbr 800 ------- 0 13.8 8.0 33 41
r 1.2812 1 8 cbr 800 ------- 0 13.8 8.0 21 26
- 1.2816 13 0 cbr 800 ------- 0 13.8 8.0 44 56
+ 1.281617 13 0 cbr 800 ------- 0 13.8 8.0 58 78
r 1.2824 13 0 cbr 800 ------- 0 13.8 8.0 40 52
+ 1.2824 0 2 cbr 800 ------- 0 13.8 8.0 40 52
- 1.2824 0 2 cbr 800 ------- 0 13.8 8.0 40 52
r 1.28416 1 9 ack 40 ------- 1 12.0 9.0 4 63
+ 1.28416 9 1 tcp 1040 ------- 1 9.0 12.0 9 79
+ 1.28416 9 1 tcp 1040 ------- 1 9.0 12.0 10 80
+ 1.286782 13 0 cbr 800 ------- 0 13.8 8.0 59 81
r 1.2868 2 1 cbr 800 ------- 0 13.8 8.0 26 31
+ 1.2868 1 8 cbr 800 ------- 0 13.8 8.0 26 31
- 1.2868 1 8 cbr 800 ------- 0 13.8 8.0 26 31
r 1.2872 0 2 cbr 800 ------- 0 13.8 8.0 34 42
+ 1.2872 2 1 cbr 800 ------- 0 13.8 8.0 34 42
- 1.2872 2 1 cbr 800 ------- 0 13.8 8.0 34 42
- 1.28732 9 1 tcp 1040 ------- 1 9.0 12.0 8 77
r 1.2876 1 8 cbr 800 ------- 0 13.8 8.0 22 27
- 1.288 13 0 cbr 800 ------- 0 13.8 8.0 45 57
r 1.2888 13 0 cbr 800 ------- 0 13.8 8.0 41 53
+ 1.2888 0 2 cbr 800 ------- 0 13.8 8.0 41 53
- 1.2888 0 2 cbr 800 ------- 0 13.8 8.0 41 53
r 1.29068 9 1 tcp 1040 ------- 1 9.1 14.0 1 70
+ 1.29068 1 2 tcp 1040 ------- 1 9.1 14.0 1 70
- 1.29068 1 2 tcp 1040 ------- 1 9.1 14.0 1 70
r 1.29248 1 9 ack 40 ------- 1 12.0 9.0 5 66
+ 1.29248 9 1 tcp 1040 ------- 1 9.0 12.0 11 82
+ 1.29248 9 1 tcp 1040 ------- 1 9.0 12.0 12 83
+ 1.292957 13 0 cbr 800 ------- 0 13.8 8.0 60 84
r 1.2932 2 1 cbr 800 ------- 0 13.8 8.0 27 32
+ 1.2932 1 8 cbr 800 ------- 0 13.8 8.0 27 32
- 1.2932 1 8 cbr 800 ------- 0 13.8 8.0 27 32
r 1.2936 0 2 cbr 800 ------- 0 13.8 8.0 35 43
+ 1.2936 2 1 cbr 800 ------- 0 13.8 8.0 35 43
- 1.2936 2 1 cbr 800 ------- 0 13.8 8.0 35 43
r 1.294 1 8 cbr 800 ------- 0 13.8 8.0 23 28
- 1.2944 13 0 cbr 800 ------- 0 13.8 8.0 46 58
r 1.2952 13 0 cbr 800 ------- 0 13.8 8.0 42 54
+ 1.2952 0 2 cbr 800 ------- 0 13.8 8.0 42 54
- 1.2952 0 2 cbr 800 ------- 0 13.8 8.0 42 54
- 1.29564 9 1 tcp 1040 ------- 1 9.0 12.0 9 79
+ 1.297563 13 0 cbr 800 ------- 0 13.8 8.0 61 85
r 1.299 9 1 tcp 1040 ------- 1 9.1 14.0 2 71
+ 1.299 1 2 tcp 1040 ------- 1 9.1 14.0 2 71
- 1.299 1 2 tcp 1040 ------- 1 9.1 14.0 2 71
r 1.2996 2 1 cbr 800 ------- 0 13.8 8.0 28 34
+ 1.2996 1 8 cbr 800 ------- 0 13.8 8.0 28 34
- 1.2996 1 8 cbr 800 ------- 0 13.8 8.0 28 34
r 1.3 0 2 cbr 800 ------- 0 13.8 8.0 36 44
+ 1.3 2 1 cbr 800 ------- 0 13.8 8.0 36 44
- 1.3 2 1 cbr 800 ------- 0 13.8 8.0 36 44
r 1.3004 1 8 cbr 800 ------- 0 13.8 8.0 24 29
+ 1.300504 13 0 cbr 800 ------- 0 13.8 8.0 62 86
- 1.3008 13 0 cbr 800 ------- 0 13.8 8.0 47 59
r 1.3008 1 9 ack 40 ------- 1 12.0 9.0 6 69
+ 1.3008 9 1 tcp 1040 ------- 1 9.0 12.0 13 87
+ 1.3008 9 1 tcp 1040 ------- 1 9.0 12.0 14 88
r 1.3016 13 0 cbr 800 ------- 0 13.8 8.0 43 55
+ 1.3016 0 2 cbr 800 ------- 0 13.8 8.0 43 55
- 1.3016 0 2 cbr 800 ------- 0 13.8 8.0 43 55
- 1.30396 9 1 tcp 1040 ------- 1 9.0 12.0 10 80
r 1.306 2 1 cbr 800 ------- 0 13.8 8.0 29 36
+ 1.306 1 8 cbr 800 ------- 0 13.8 8.0 29 36
- 1.306 1 8 cbr 800 ------- 0 13.8 8.0 29 36
r 1.3064 0 2 cbr 800 ------- 0 13.8 8.0 37 45
+ 1.3064 2 1 cbr 800 ------- 0 13.8 8.0 37 45
- 1.3064 2 1 cbr 800 ------- 0 13.8 8.0 37 45
r 1.3068 1 8 cbr 800 ------- 0 13.8 8.0 25 30
+ 1.307076 13 0 cbr 800 ------- 0 13.8 8.0 63 89
- 1.3072 13 0 cbr 800 ------- 0 13.8 8.0 48 60
r 1.30732 9 1 tcp 1040 ------- 1 9.0 12.0 7 76
+ 1.30732 1 12 tcp 1040 ------- 1 9.0 12.0 7 76
- 1.30732 1 12 tcp 1040 ------- 1 9.0 12.0 7 76
r 1.308 13 0 cbr 800 ------- 0 13.8 8.0 44 56
+ 1.308 0 2 cbr 800 ------- 0 13.8 8.0 44 56
- 1.308 0 2 cbr 800 ------- 0 13.8 8.0 44 56
- 1.31228 9 1 tcp 1040 ------- 1 9.0 12.0 11 82
r 1.3124 2 1 cbr 800 ------- 0 13.8 8.0 30 38
+ 1.3124 1 8 cbr 800 ------- 0 13.8 8.0 30 38
- 1.3124 1 8 cbr 800 ------- 0 13.8 8.0 30 38
r 1.3128 0 2 cbr 800 ------- 0 13.8 8.0 38 48
+ 1.3128 2 1 cbr 800 ------- 0 13.8 8.0 38 48
- 1.3128 2 1 cbr 800 ------- 0 13.8 8.0 38 48
r 1.3132 1 8 cbr 800 ------- 0 13.8 8.0 26 31
- 1.3136 13 0 cbr 800 ------- 0 13.8 8.0 49 62
+ 1.314091 13 0 cbr 800 ------- 0 13.8 8.0 64 90
r 1.3144 13 0 cbr 800 ------- 0 13.8 8.0 45 57
+ 1.3144 0 2 cbr 800 ------- 0 13.8 8.0 45 57
- 1.3144 0 2 cbr 800 ------- 0 13.8 8.0 45 57
r 1.31564 9 1 tcp 1040 ------- 1 9.0 12.0 8 77
+ 1.31564 1 12 tcp 1040 ------- 1 9.0 12.0 8 77
- 1.31564 1 12 tcp 1040 ------- 1 9.0 12.0 8 77
r 1.3188 2 1 cbr 800 ------- 0 13.8 8.0 31 39
+ 1.3188 1 8 cbr 800 ------- 0 13.8 8.0 31 39
- 1.3188 1 8 cbr 800 ------- 0 13.8 8.0 31 39
r 1.3192 0 2 cbr 800 ------- 0 13.8 8.0 39 51
+ 1.3192 2 1 cbr 800 ------- 0 13.8 8.0 39 51
- 1.3192 2 1 cbr 800 ------- 0 13.8 8.0 39 51
r 1.3196 1 8 cbr 800 ------- 0 13.8 8.0 27 32
- 1.32 13 0 cbr 800 ------- 0 13.8 8.0 50 64
+ 1.320231 13 0 cbr 800 ------- 0 13.8 8.0 65 91
- 1.3206 9 1 tcp 1040 ------- 1 9.0 12.0 12 83
r 1.3208 13 0 cbr 800 ------- 0 13.8 8.0 46 58
+ 1.3208 0 2 cbr 800 ------- 0 13.8 8.0 46 58
- 1.3208 0 2 cbr 800 ------- 0 13.8 8.0 46 58
r 1.32396 9 1 tcp 1040 ------- 1 9.0 12.0 9 79
+ 1.32396 1 12 tcp 1040 ------- 1 9.0 12.0 9 79
- 1.32396 1 12 tcp 1040 ------- 1 9.0 12.0 9 79
r 1.3252 2 1 cbr 800 ------- 0 13.8 8.0 32 40
+ 1.3252 1 8 cbr 800 ------- 0 13.8 8.0 32 40
- 1.3252 1 8 cbr 800 ------- 0 13.8 8.0 32 40
r 1.3256 0 2 cbr 800 ------- 0 13.8 8.0 40 52
+ 1.3256 2 1 cbr 800 ------- 0 13.8 8.0 40 52
- 1.3256 2 1 cbr 800 ------- 0 13.8 8.0 40 52
r 1.326 1 8 cbr 800 ------- 0 13.8 8.0 28 34
- 1.3264 13 0 cbr 800 ------- 0 13.8 8.0 51 65
+ 1.327104 13 0 cbr 800 ------- 0 13.8 8.0 66 92
r 1.3272 13 0 cbr 800 ------- 0 13.8 8.0 47 59